80
idic_an_freq.out	Energy: -2995059.5346702
C         -3.92868        0.20199        1.75200
C         -3.98831       -0.13292        3.08720
C         -3.06428       -1.07121        3.65166
C         -2.06523       -1.68203        2.86173
C         -2.00560       -1.34712        1.52653
C         -2.92962       -0.40883        0.96207
C         -4.96516        0.38075        4.15003
C         -4.48166       -0.37934        5.37276
C         -3.38979       -1.19644        5.03159
C         -4.85482       -0.45371        6.70285
C         -4.04993       -1.34775        7.45429
S         -2.79663       -2.08585        6.38628
C         -1.02878       -1.86083        0.46370
C         -1.51229       -1.10076       -0.75904
C         -2.60413       -0.28362       -0.41786
C         -1.13914       -1.02642       -2.08913
C         -1.94399       -0.13234       -2.84058
S         -3.19727        0.60578       -1.77256
C         -4.02614       -1.74462        8.79535
C         -4.82669       -1.42005        9.90770
C         -6.03519       -0.57368        9.92131
O         -6.57543        0.05229        9.01001
C         -6.55390       -0.59930       11.31417
C         -5.71738       -1.39627       12.10815
C         -4.61362       -1.91359       11.24989
C         -7.67386        0.03957       11.80594
C         -7.98631       -0.12025       13.16154
C         -7.16269       -0.91389       13.97428
C         -6.02547       -1.55509       13.45786
C         -3.57560       -2.71715       11.74022
C         -3.49397       -3.15917       13.09088
N         -3.38086       -3.55046       14.18509
C         -2.46813       -3.18486       10.97680
N         -1.53372       -3.59640       10.41015
Cl        -9.40518        0.68417       13.79324
Cl        -7.51764       -1.14015       15.67355
C         -1.96775        0.26458       -4.18163
C         -1.16741       -0.06015       -5.29409
C          0.04059       -0.90724       -5.30798
O          0.58072       -1.53346       -4.39679
C          0.55881       -0.88221       -6.70102
C         -0.27743       -0.08477       -7.49482
C         -1.38042        0.43360       -6.63621
C          1.67807       -1.52205       -7.19313
C          1.99006       -1.36279       -8.54890
C          1.16666       -0.56874       -9.36148
C          0.03017        0.07346       -8.84470
C         -2.41768        1.23834       -7.12625
C         -2.49914        1.68045       -8.47688
N         -2.61203        2.07183       -9.57109
C         -3.52431        1.70750       -6.36251
N         -4.45800        2.12033       -5.79563
Cl         3.40805       -2.16843       -9.18102
Cl         1.52098       -0.34324      -11.06099
H         -4.62461        0.91240        1.31391
H         -1.36930       -2.39243        3.29982
H         -5.66608        0.08272        7.17373
H         -3.23021       -2.44754        9.00963
H         -8.29355        0.64850       11.15673
H         -5.42802       -2.15313       14.13021
H         -0.32791       -1.56290       -2.56001
H         -2.76358        0.96765       -4.39581
H          2.29759       -2.13130       -6.54404
H         -0.56716        0.67174       -9.51696
C         -4.83053        1.90593        4.34533
H         -3.80029        2.18002        4.59351
H         -5.11853        2.43540        3.43032
H         -5.48369        2.24288        5.15777
C         -6.42226        0.01255        3.79841
H         -7.09633        0.32307        4.60429
H         -6.73242        0.51729        2.87669
H         -6.52995       -1.06714        3.65432
C          0.42833       -1.49266        0.81528
H          0.53605       -0.41297        0.95934
H          0.73850       -1.99738        1.73700
H          1.10238       -1.80321        0.00939
C         -1.16345       -3.38601        0.26843
H         -0.51031       -3.72299       -0.54402
H         -0.87543       -3.91547        1.18344
H         -2.19370       -3.66009        0.02028
