85
y6_freq.out	Energy: -3023794.1568906
C         -0.01279       -0.00346        1.02864
C          0.20214        1.21690        1.73635
C          0.22942        1.23856        3.16711
C          0.00721        0.00761        3.89764
C         -0.12302       -1.22053        3.17441
C         -0.06493       -1.23771        1.74869
N          0.38896        2.30490        3.94086
S          0.26342        1.77028        5.50937
N          0.00124        0.15557        5.21646
C          0.24970        2.23683        0.77041
C          0.02970        1.64333       -0.48057
N         -0.14400        0.28005       -0.32482
S          0.44218        3.97141        0.69466
C          0.21135        3.88652       -1.06402
C          0.00016        2.57500       -1.53579
C          0.20928        4.86397       -2.06128
C         -0.01439        4.29540       -3.34428
S         -0.20875        2.51994       -3.25441
C         -0.20870       -2.56132        3.58774
C         -0.16425       -3.36081        2.43694
N         -0.06352       -2.55751        1.31557
S         -0.29218       -3.47991        5.07127
C         -0.25733       -4.97257        4.10987
C         -0.18547       -4.73956        2.72141
C         -0.29677       -6.32245        4.46536
C         -0.24958       -7.16200        3.31975
S         -0.16649       -6.21106        1.80761
C         -0.05933        5.10795       -4.49509
C         -0.26831       -8.56501        3.45277
C         -0.25105        4.87357       -5.84675
C         -0.48977        3.56035       -6.47650
O         -0.55270        2.46146       -5.93225
C         -0.64642        3.80450       -7.92644
C         -0.51204        5.17897       -8.18646
C         -0.25762        5.88373       -6.90254
C         -0.88892        2.86463       -8.91859
C         -1.00004        3.33265      -10.21969
C         -0.86975        4.70010      -10.49882
C         -0.62632        5.63856       -9.50335
C         -0.06387        7.25259       -6.78954
C         -0.09398        8.14713       -7.90123
N         -0.11003        8.91468       -8.77793
C          0.19102        7.93710       -5.56353
N          0.40230        8.54110       -4.58880
C         -0.23685       -9.62894        2.56645
C         -0.17186       -9.53398        1.09506
O         -0.13444       -8.51953        0.40420
C         -0.16031      -10.91939        0.57821
C         -0.21457      -11.82071        1.65505
C         -0.26303      -11.04580        2.92272
C         -0.10675      -11.32437       -0.74832
C         -0.10831      -12.68976       -0.99343
C         -0.16256      -13.60428        0.06745
C         -0.21625      -13.19569        1.39449
C         -0.32047      -11.61826        4.18492
C         -0.33559      -13.02736        4.41120
N         -0.34950      -14.16899        4.64459
C         -0.37047      -10.88356        5.40741
N         -0.41307      -10.32884        6.43212
H          0.09428        6.14638       -4.23398
H         -0.31924       -8.84770        4.49558
H         -0.98818        1.80869       -8.69252
F         -1.23374        2.49254      -11.23599
F         -0.98642        5.09821      -11.77295
H         -0.53773        6.67550       -9.79458
H         -0.06557      -10.60894       -1.56223
F         -0.05865      -13.16476       -2.24450
F         -0.16196      -14.91184       -0.22553
H         -0.25652      -13.95857        2.15888
C         -0.76484       -0.54340       -1.36302
H         -1.40548        0.09484       -1.97537
H         -0.01970       -1.01821       -2.00605
H         -1.39434       -1.30217       -0.89876
C          0.39414       -3.08340        0.02900
H          1.01915       -2.34103       -0.46641
H          1.00701       -3.96812        0.21466
H         -0.44121       -3.36069       -0.61852
C          0.41416        6.33106       -1.80116
H          0.58819        6.51751       -0.73834
H          1.27357        6.72216       -2.35595
H         -0.45922        6.91770       -2.10612
C         -0.37518       -6.81701        5.88362
H         -1.26248       -7.43850        6.04426
H          0.49616       -7.42756        6.14429
H         -0.42046       -5.98078        6.58597
