102
zr1_freq.out	Energy: -4916905.6040759
C         -0.25416        0.93489        3.30482
C         -0.36895        0.94949        1.91494
C         -0.73504       -0.20666        1.15920
C         -1.00559       -1.42764        1.81306
C         -0.89102       -1.44220        3.20294
C         -0.52480       -0.28611        3.95873
S         -0.03851        2.36067        0.89130
C         -0.39008        1.40717       -0.54414
C         -0.74075        0.09811       -0.24009
C         -0.36533        1.70025       -1.92726
C         -0.70178        0.59820       -2.69249
S         -1.07243       -0.81343       -1.68724
S         -1.22233       -2.85332        4.22630
C         -0.87141       -1.89984        5.66183
C         -0.51979       -0.59092        5.35799
C         -0.89609       -2.19316        7.04460
C         -0.55867       -1.09166        7.81066
S         -0.18882        0.32052        6.80527
C          0.13058        2.13429        4.07341
S         -1.02401        3.41401        4.41581
C          0.15529        4.31690        5.33884
C          1.35352        3.65268        5.36589
C          1.34157        2.41659        4.65189
C         -1.39017       -2.62712        1.04451
S         -0.23504       -3.90615        0.70126
C         -1.41437       -4.80954       -0.22127
C         -2.61298       -4.14600       -0.24752
C         -2.60132       -2.91002        0.46669
C         -0.78504        0.50121       -4.12916
S         -0.81394        1.93270       -5.13595
C         -0.90130        0.96843       -6.61137
C         -0.92946       -0.39214       -6.30808
C         -0.86101       -0.63324       -4.91317
C         -0.47545       -0.99635        9.24714
S         -0.51806       -2.42569       10.25633
C         -0.38777       -1.46441       11.73101
C         -0.29749       -0.10645       11.42510
C         -0.35048        0.13504       10.03019
C         -0.93005        1.65182       -7.87925
S         -1.23506        0.84285       -9.40339
C         -1.11391        2.34506      -10.31212
C         -0.85159        3.40195       -9.44470
C         -0.74926        3.01769       -8.10043
C         -0.39114       -2.14685       12.99854
S         -0.11096       -1.34384       14.52798
C         -0.27332       -2.85133       15.43694
C         -0.52998       -3.90319       14.55921
C         -0.59473       -3.51148       13.21682
C         -1.28039        2.30070      -11.72771
C         -1.24628        3.31490      -12.63678
S         -0.98516        5.04082      -12.37828
C         -1.13691        5.39136      -14.11206
S         -1.00381        6.92108      -14.73484
N         -1.37026        4.24114      -14.80948
C         -1.44641        3.03800      -14.06835
O         -1.65053        1.94958      -14.58342
C         -0.12911       -2.76035       16.85375
C         -0.18743       -3.69463       17.85453
S          0.04639       -3.21417       19.55288
C         -0.16736       -4.86346       20.13266
S         -0.08898       -5.28552       21.73707
N         -0.39969       -5.70318       19.07894
C         -0.42728       -5.13851       17.78057
O         -0.62914       -5.82253       16.78485
H         -0.09582        2.66187       -2.34847
H         -1.16366       -3.15584        7.46470
H          2.22483        4.04096        5.88312
H          2.19554        1.75321        4.56865
H         -3.48433       -4.53462       -0.76441
H         -3.45562       -2.24713        0.55049
H         -0.84678       -1.63537       -4.49730
H         -0.31405        1.13619        9.61326
H         -0.72689        4.42808       -9.76775
H         -0.53730        3.71889       -7.30114
H         -0.66659       -4.91528       14.91004
H         -0.79463       -4.20883       12.41071
H         -1.46516        1.32501      -12.17479
H          0.06651       -1.74734       17.20538
C         -0.19362        5.63168        5.97064
H          0.67495        6.02347        6.50876
H         -0.49293        6.37522        5.22245
H         -1.01968        5.53309        6.68483
C         -1.06509       -6.12401       -0.85351
H         -0.23936       -6.02488       -1.56801
H         -0.76514       -6.86758       -0.10561
H         -1.93369       -6.51607       -1.39139
C         -1.00438       -1.51488       -7.30714
H         -0.92143       -2.48074       -6.80126
H         -1.95501       -1.50797       -7.85446
H         -0.19927       -1.45456       -8.04881
C         -0.17253        1.01330       12.42226
H         -0.18646        1.98052       11.91241
H         -0.99417        1.00525       13.14814
H          0.76489        0.94952       12.98824
C         -1.53724        4.23154      -16.26137
H         -0.63688        4.62524      -16.73847
H         -1.70711        3.19784      -16.55981
H         -2.38994        4.85545      -16.53868
C         -0.61493       -7.13662       19.26696
H         -0.77917       -7.57237       18.28256
H          0.26267       -7.58165       19.74139
H         -1.48534       -7.29702       19.90719
