102
zr1_cat_freq.out	Energy: -4916788.7065480
C         -0.32062        0.96299        3.30777
C         -0.48465        0.98230        1.93063
C         -0.80905       -0.19186        1.17082
C         -0.99152       -1.44311        1.81976
C         -0.82774       -1.46236        3.19682
C         -0.50364       -0.28832        3.95684
S         -0.25700        2.41865        0.91149
C         -0.58202        1.45755       -0.51601
C         -0.86024        0.11318       -0.21086
C         -0.59718        1.75407       -1.88376
C         -0.88567        0.62818       -2.65621
S         -1.15849       -0.81250       -1.65350
S         -1.05517       -2.89953        4.21478
C         -0.73170       -1.93894        5.64283
C         -0.45372       -0.59355        5.33850
C         -0.71789       -2.23589        7.00961
C         -0.43110       -1.10976        7.78361
S         -0.15819        0.33187        6.78155
C          0.02821        2.16752        4.08193
S         -1.14526        3.43651        4.39461
C          0.00859        4.35365        5.33446
C          1.21343        3.70161        5.38784
C          1.22718        2.46247        4.68209
C         -1.33897       -2.64828        1.04578
S         -0.16118       -3.91154        0.72620
C         -1.31495       -4.83252       -0.21004
C         -2.52283       -4.18571       -0.25739
C         -2.53911       -2.94767        0.45030
C         -0.98076        0.54193       -4.07672
S         -0.85083        1.96104       -5.09655
C         -1.05598        1.00013       -6.55808
C         -1.22465       -0.35979       -6.24379
C         -1.17941       -0.59213       -4.85844
C         -0.33896       -1.02598        9.20321
S         -0.47418       -2.44657       10.21989
C         -0.27151       -1.48826       11.68393
C         -0.10094       -0.12649       11.37168
C         -0.14116        0.10778        9.98787
C         -1.03080        1.66590       -7.82811
S         -1.31977        0.85433       -9.35590
C         -1.11631        2.34031      -10.26570
C         -0.83816        3.39939       -9.40169
C         -0.79131        3.02527       -8.05491
C         -0.30013       -2.15582       12.95071
S         -0.04824       -1.34692       14.48399
C         -0.24026       -2.84655       15.38883
C         -0.48701       -3.90576       14.51284
C         -0.51929       -3.52156       13.17088
C         -1.24919        2.29003      -11.68704
C         -1.13354        3.29511      -12.59741
S         -0.77952        5.00085      -12.35347
C         -0.86235        5.33717      -14.09963
S         -0.61968        6.84485      -14.72959
N         -1.14623        4.19246      -14.78978
C         -1.31419        3.01056      -14.03845
O         -1.57024        1.92728      -14.53568
C         -0.12212       -2.74870       16.81090
C         -0.20655       -3.67893       17.81107
S         -0.00487       -3.19872       19.50678
C         -0.23688       -4.85047       20.08651
S         -0.18885       -5.26439       21.68797
N         -0.45368       -5.69186       19.02833
C         -0.45344       -5.13098       17.73432
O         -0.63723       -5.80736       16.73268
H         -0.39560        2.73240       -2.30391
H         -0.91935       -3.21457        7.42905
H          2.07150        4.10253        5.91692
H          2.09071        1.80975        4.61483
H         -3.38128       -4.58951       -0.78367
H         -3.40510       -2.29866        0.52175
H         -1.28091       -1.58547       -4.43411
H         -0.03654        1.10133        9.56488
H         -0.67093        4.41718       -9.73013
H         -0.58207        3.72812       -7.25634
H         -0.63648       -4.91455       14.86678
H         -0.70321       -4.22316       12.36471
H         -1.47538        1.32232      -12.13164
H          0.07361       -1.73582       17.16152
C         -0.36591        5.66751        5.95273
H          0.48557        6.06681        6.51161
H         -0.65056        6.40540        5.19366
H         -1.20986        5.56458        6.64469
C         -0.93738       -6.14397       -0.83157
H         -0.09619       -6.03671       -1.52623
H         -0.64729       -6.88190       -0.07458
H         -1.78916       -6.54578       -1.38819
C         -1.42324       -1.47147       -7.23633
H         -1.48515       -2.43369       -6.72161
H         -2.34827       -1.34023       -7.81016
H         -0.59486       -1.52810       -7.95195
C          0.09553        0.98220       12.36757
H          0.17278        1.94439       11.85490
H         -0.74158        1.04519       13.07249
H          1.01159        0.84091       12.95316
C         -1.27377        4.17448      -16.24696
H         -0.33693        4.50397      -16.70151
H         -1.50091        3.15021      -16.53936
H         -2.07720        4.84772      -16.55360
C         -0.67851       -7.12530       19.21610
H         -0.82954       -7.56324       18.23075
H          0.19035       -7.57169       19.70456
H         -1.55948       -7.27878       19.84298
